      -----------------------------------------------------------      
     |                   =====================                   |     
     |                           x T B                           |     
     |                   =====================                   |     
     |                         S. Grimme                         |     
     |          Mulliken Center for Theoretical Chemistry        |     
     |                    University of Bonn                     |     
      -----------------------------------------------------------      

   * xtb version 6.7.1 (edcfbbe) compiled by 'albert@albert-system' on 2024-07-22

   xtb is free software: you can redistribute it and/or modify it under
   the terms of the GNU Lesser General Public License as published by
   the Free Software Foundation, either version 3 of the License, or
   (at your option) any later version.
   
   xtb is distributed in the hope that it will be useful,
   but WITHOUT ANY WARRANTY; without even the implied warranty of
   MERCHANTABILITY or FITNESS FOR A PARTICULAR PURPOSE.  See the
   GNU Lesser General Public License for more details.
   
   Cite this work as:
   * C. Bannwarth, E. Caldeweyher, S. Ehlert, A. Hansen, P. Pracht,
     J. Seibert, S. Spicher, S. Grimme, WIREs Comput. Mol. Sci., 2020, 11,
     e01493. DOI: 10.1002/wcms.1493
   
   for GFN2-xTB:
   * C. Bannwarth, S. Ehlert and S. Grimme., J. Chem. Theory Comput., 2019,
     15, 1652-1671. DOI: 10.1021/acs.jctc.8b01176
   for GFN1-xTB:
   * S. Grimme, C. Bannwarth, P. Shushkov, J. Chem. Theory Comput., 2017,
     13, 1989-2009. DOI: 10.1021/acs.jctc.7b00118
   for GFN0-xTB:
   * P. Pracht, E. Caldeweyher, S. Ehlert, S. Grimme, ChemRxiv, 2019, preprint.
     DOI: 10.26434/chemrxiv.8326202.v1
   for GFN-FF:
   * S. Spicher and S. Grimme, Angew. Chem. Int. Ed., 2020, 59, 15665-15673.
     DOI: 10.1002/anie.202004239
   
   for ALPB and GBSA implicit solvation:
   * S. Ehlert, M. Stahn, S. Spicher, S. Grimme, J. Chem. Theory Comput.,
     2021, 17, 4250-4261. DOI: 10.1021/acs.jctc.1c00471
   
   for ddCOSMO and CPCM-X implicit solvation:
   * M. Stahn, S. Ehlert, S. Grimme, J. Phys. Chem. A,
     2023, XX, XXXX-XXXX. DOI: 10.1021/acs.jpca.3c04382
   
   for DFT-D4:
   * E. Caldeweyher, C. Bannwarth and S. Grimme, J. Chem. Phys., 2017,
     147, 034112. DOI: 10.1063/1.4993215
   * E. Caldeweyher, S. Ehlert, A. Hansen, H. Neugebauer, S. Spicher,
     C. Bannwarth and S. Grimme, J. Chem. Phys., 2019, 150, 154122.
     DOI: 10.1063/1.5090222
   * E. Caldeweyher, J.-M. Mewes, S. Ehlert and S. Grimme, Phys. Chem. Chem. Phys.
     2020, 22, 8499-8512. DOI: 10.1039/D0CP00502A
   
   for sTDA-xTB:
   * S. Grimme and C. Bannwarth, J. Chem. Phys., 2016, 145, 054103.
     DOI: 10.1063/1.4959605
   
   in the mass-spec context:
   * V. Asgeirsson, C. Bauer and S. Grimme, Chem. Sci., 2017, 8, 4879.
     DOI: 10.1039/c7sc00601b
   * J. Koopman and S. Grimme, ACS Omega 2019, 4, 12, 15120-15133.
     DOI: 10.1021/acsomega.9b02011
   
   for metadynamics refer to:
   * S. Grimme, J. Chem. Theory Comput., 2019, 155, 2847-2862
     DOI: 10.1021/acs.jctc.9b00143
   
   for SPH calculations refer to:
   * S. Spicher and S. Grimme, J. Chem. Theory Comput., 2021, 17, 1701-1714
     DOI: 10.1021/acs.jctc.0c01306
   
   for ONIOM refer to:
   * C. Plett, A. Katbashev, S. Ehlert, S. Grimme, M. Bursch,
     Phys. Chem. Chem. Phys., 2023, 25, 17860-17868. DOI: 10.1039/D3CP02178E
   
   for DIPRO refer to:
   * J. Kohn, N. Gildemeister, S. Grimme, D. Fazzi, A. Hansen,
     J. Chem. Phys., 2023, just accepted.
   
   for PTB refer to:
   * S. Grimme, M. Mueller, A. Hansen, J. Chem. Phys., 2023, 158, 124111.
     DOI: 10.1063/5.0137838
   
   with help from (in alphabetical order)
   P. Atkinson, C. Bannwarth, F. Bohle, G. Brandenburg, E. Caldeweyher
   M. Checinski, S. Dohm, S. Ehlert, S. Ehrlich, I. Gerasimov, C. Hölzer
   A. Katbashev, J. Kohn, J. Koopman, C. Lavigne, S. Lehtola, F. März, M. Müller,
   F. Musil, H. Neugebauer, J. Pisarek, C. Plett, P. Pracht, F. Pultar,
   J. Seibert, P. Shushkov, S. Spicher, M. Stahn, M. Steiner, T. Strunk,
   J. Stückrath, T. Rose, and J. Unsleber
   
 * started run on 2026/03/05 at 16:12:18.305     
   ID    Z sym.   atoms
    1    6 C      1-3, 5
    2   16 S      4
    3    1 H      6-9

           -------------------------------------------------
          |                Calculation Setup                |
           -------------------------------------------------

          program call               : otool_xtb molecule.xyz molecule.xyz --opt tight -P 1 --namespace geometry --cycles 300
          calculation namespace      : geometry
          coordinate file            : molecule.xyz
          omp threads                :                     1

########################################################################
[WARNING] Please study the warnings concerning your input carefully
-1- prog_main: Input file 'molecule.xyz' will be ignored
########################################################################

           -------------------------------------------------
          |                 G F N 2 - x T B                 |
           -------------------------------------------------

        Reference                      10.1021/acs.jctc.8b01176
      * Hamiltonian:
        H0-scaling (s, p, d)           1.850000    2.230000    2.230000
        zeta-weighting                 0.500000
      * Dispersion:
        s8                             2.700000
        a1                             0.520000
        a2                             5.000000
        s9                             5.000000
      * Repulsion:
        kExp                           1.500000    1.000000
        rExp                           1.000000
      * Coulomb:
        alpha                          2.000000
        third order                    shell-resolved
        anisotropic                    true
        a3                             3.000000
        a5                             4.000000
        cn-shift                       1.200000
        cn-exp                         4.000000
        max-rad                        5.000000


          ...................................................
          :                      SETUP                      :
          :.................................................:
          :  # basis functions                  30          :
          :  # atomic orbitals                  29          :
          :  # shells                           15          :
          :  # electrons                        26          :
          :  max. iterations                   250          :
          :  Hamiltonian                  GFN2-xTB          :
          :  restarted?                      false          :
          :  GBSA solvation                  false          :
          :  PC potential                    false          :
          :  electronic temp.          300.0000000     K    :
          :  accuracy                    1.0000000          :
          :  -> integral cutoff          0.2500000E+02      :
          :  -> integral neglect         0.1000000E-07      :
          :  -> SCF convergence          0.1000000E-05 Eh   :
          :  -> wf. convergence          0.1000000E-03 e    :
          :  Broyden damping             0.4000000          :
          :  net charge                          0          :
          :  unpaired electrons                  0          :
          ...................................................

 iter      E             dE          RMSdq      gap      omega  full diag
   1    -14.0076729 -0.140077E+02  0.443E+00    3.94       0.0  T
   2    -14.0161993 -0.852643E-02  0.258E+00    4.01       1.0  T
   3    -14.0121359  0.406345E-02  0.108E+00    3.97       1.0  T
   4    -14.0175182 -0.538228E-02  0.431E-01    3.96       1.0  T
   5    -14.0180785 -0.560356E-03  0.132E-01    3.96       1.0  T
   6    -14.0181226 -0.440677E-04  0.261E-02    3.96       1.3  T
   7    -14.0181228 -0.242268E-06  0.874E-03    3.96       3.8  T
   8    -14.0181228 -0.576974E-08  0.268E-03    3.96      12.4  T
   9    -14.0181229 -0.168985E-07  0.121E-03    3.96      27.6  T
  10    -14.0181229 -0.483647E-08  0.493E-04    3.96      67.6  T
  11    -14.0181229 -0.248599E-09  0.620E-05    3.96     537.8  T

   *** convergence criteria satisfied after 11 iterations ***

         #    Occupation            Energy/Eh            Energy/eV
      -------------------------------------------------------------
         1        2.0000           -0.7292784             -19.8447
       ...           ...                  ...                  ...
         7        2.0000           -0.4783235             -13.0158
         8        2.0000           -0.4723282             -12.8527
         9        2.0000           -0.4659570             -12.6793
        10        2.0000           -0.4629156             -12.5966
        11        2.0000           -0.4496242             -12.2349
        12        2.0000           -0.3958163             -10.7707
        13        2.0000           -0.3898376             -10.6080 (HOMO)
        14                         -0.2441954              -6.6449 (LUMO)
        15                         -0.1961430              -5.3373
        16                         -0.1731347              -4.7112
        17                         -0.1120889              -3.0501
        18                          0.0013481               0.0367
       ...                                ...                  ...
        29                          0.6793953              18.4873
      -------------------------------------------------------------
                  HL-Gap            0.1456422 Eh            3.9631 eV
             Fermi-level           -0.3170165 Eh           -8.6265 eV

 SCC (total)                   0 d,  0 h,  0 min,  0.016 sec
 SCC setup                      ...        0 min,  0.002 sec ( 10.467%)
 Dispersion                     ...        0 min,  0.000 sec (  0.244%)
 classical contributions        ...        0 min,  0.000 sec (  0.776%)
 integral evaluation            ...        0 min,  0.005 sec ( 32.286%)
 iterations                     ...        0 min,  0.006 sec ( 36.212%)
 molecular gradient             ...        0 min,  0.003 sec ( 17.205%)
 printout                       ...        0 min,  0.000 sec (  2.643%)

         :::::::::::::::::::::::::::::::::::::::::::::::::::::
         ::                     SUMMARY                     ::
         :::::::::::::::::::::::::::::::::::::::::::::::::::::
         :: total energy             -13.817041015571 Eh    ::
         :: gradient norm              0.034929799242 Eh/a0 ::
         :: HOMO-LUMO gap              3.963125309786 eV    ::
         ::.................................................::
         :: SCC energy               -14.018120988698 Eh    ::
         :: -> isotropic ES            0.000816594143 Eh    ::
         :: -> anisotropic ES          0.001203586347 Eh    ::
         :: -> anisotropic XC          0.008594937002 Eh    ::
         :: -> dispersion             -0.006270046826 Eh    ::
         :: repulsion energy           0.201079973127 Eh    ::
         :: add. restraining           0.000000000000 Eh    ::
         :: total charge              -0.000000000000 e     ::
         :::::::::::::::::::::::::::::::::::::::::::::::::::::

      ----------------------------------------------------------- 
     |                   =====================                   |
     |                        A N C O P T                        |
     |                   =====================                   |
     |               Approximate Normal Coordinate               |
     |                Rational Function Optimizer                |
      ----------------------------------------------------------- 
      ----------------------------------------------------------- 
     |                   =====================                   |
     |                        A N C O P T                        |
     |                   =====================                   |
     |               Approximate Normal Coordinate               |
     |                Rational Function Optimizer                |
      ----------------------------------------------------------- 

          ...................................................
          :                      SETUP                      :
          :.................................................:
          :   optimization level             tight          :
          :   max. optcycles                   300          :
          :   ANC micro-cycles                  20          :
          :   degrees of freedom                21          :
          :.................................................:
          :   RF solver                   davidson          :
          :   write xtbopt.log                true          :
          :   linear?                        false          :
          :   energy convergence         0.1000000E-05 Eh   :
          :   grad. convergence          0.8000000E-03 Eh/α :
          :   maxmium RF displ.          1.0000000          :
          :   Hlow (freq-cutoff)         0.1000000E-01      :
          :   Hmax (freq-cutoff)         5.0000000          :
          :   S6 in model hess.         20.0000000          :
          ...................................................

generating ANC from exact Hessian ...
Using Lindh-Hessian (1995)
 Shifting diagonal of input Hessian by   0.000000000000000E+000
 Lowest  eigenvalues of input Hessian
    0.000000    0.000000    0.000000    0.000000    0.000000    0.000000
    0.016748    0.017729    0.036965    0.065428    0.091777    0.098265
    0.098420    0.109670    0.147486    0.158014    0.166259    0.318335
 Highest eigenvalues
    0.970551    1.335478    1.499703    1.629205    1.786875    1.811938
 

........................................................................
.............................. CYCLE    1 ..............................
........................................................................

 iter      E             dE          RMSdq      gap      omega  full diag
   1    -14.0181229 -0.140181E+02  0.229E-05    3.96       0.0  T
   2    -14.0181229 -0.930811E-12  0.118E-05    3.96    2816.1  T
   3    -14.0181229 -0.287770E-12  0.727E-06    3.96    4584.5  T
     SCC iter.                  ...        0 min,  0.001 sec
     gradient                   ...        0 min,  0.001 sec
 * total energy  :   -13.8170410 Eh     change       -0.2026290E-10 Eh
   gradient norm :     0.0349296 Eh/α   predicted     0.0000000E+00 (-100.00%)
   displ. norm   :     0.0816911 α      lambda       -0.1921155E-02
   maximum displ.:     0.0526950 α      in ANC's #10, #13, #7, ...

........................................................................
.............................. CYCLE    2 ..............................
........................................................................

 iter      E             dE          RMSdq      gap      omega  full diag
   1    -14.0333734 -0.140334E+02  0.178E-01    4.05       0.0  T
   2    -14.0333906 -0.172681E-04  0.944E-02    4.06       1.0  T
   3    -14.0333894  0.118894E-05  0.347E-02    4.06       1.0  T
   4    -14.0333905 -0.107249E-05  0.236E-02    4.06       1.4  T
   5    -14.0333929 -0.236566E-05  0.754E-03    4.06       4.4  T
   6    -14.0333929 -0.280747E-07  0.144E-03    4.06      23.1  T
   7    -14.0333929  0.125633E-09  0.323E-04    4.06     103.3  T
   8    -14.0333929 -0.473854E-09  0.148E-04    4.06     225.5  T
     SCC iter.                  ...        0 min,  0.001 sec
     gradient                   ...        0 min,  0.001 sec
 * total energy  :   -13.8181807 Eh     change       -0.1139714E-02 Eh
   gradient norm :     0.0107803 Eh/α   predicted    -0.9669895E-03 ( -15.16%)
   displ. norm   :     0.0170337 α      lambda       -0.1183182E-03
   maximum displ.:     0.0090588 α      in ANC's #13, #5, #10, ...

........................................................................
.............................. CYCLE    3 ..............................
........................................................................

 iter      E             dE          RMSdq      gap      omega  full diag
   1    -14.0362406 -0.140362E+02  0.595E-02    4.09       0.0  T
   2    -14.0362442 -0.357800E-05  0.256E-02    4.09       1.3  T
   3    -14.0362442 -0.521202E-07  0.103E-02    4.09       3.2  T
   4    -14.0362443 -0.102053E-06  0.736E-03    4.09       4.5  T
   5    -14.0362445 -0.215318E-06  0.258E-03    4.09      12.9  T
   6    -14.0362446 -0.660246E-08  0.211E-04    4.09     157.6  T
   7    -14.0362446  0.382272E-11  0.981E-05    4.09     339.7  T
     SCC iter.                  ...        0 min,  0.001 sec
     gradient                   ...        0 min,  0.001 sec
 * total energy  :   -13.8182519 Eh     change       -0.7121876E-04 Eh
   gradient norm :     0.0042385 Eh/α   predicted    -0.5917732E-04 ( -16.91%)
   displ. norm   :     0.0102040 α      lambda       -0.2617076E-04
   maximum displ.:     0.0076809 α      in ANC's #5, #17, #10, ...

........................................................................
.............................. CYCLE    4 ..............................
........................................................................

 iter      E             dE          RMSdq      gap      omega  full diag
   1    -14.0362376 -0.140362E+02  0.340E-02    4.10       0.0  T
   2    -14.0362386 -0.969311E-06  0.147E-02    4.10       2.3  T
   3    -14.0362386  0.171788E-07  0.655E-03    4.10       5.1  T
   4    -14.0362386 -0.781971E-07  0.365E-03    4.10       9.1  T
   5    -14.0362387 -0.565396E-07  0.101E-03    4.10      32.9  T
   6    -14.0362387 -0.608409E-09  0.108E-04    4.10     308.6  T
   7    -14.0362387 -0.516387E-11  0.306E-05    4.10    1090.0  T
     SCC iter.                  ...        0 min,  0.001 sec
     gradient                   ...        0 min,  0.001 sec
 * total energy  :   -13.8182699 Eh     change       -0.1796583E-04 Eh
   gradient norm :     0.0016737 Eh/α   predicted    -0.1308770E-04 ( -27.15%)
   displ. norm   :     0.0154291 α      lambda       -0.1060305E-04
   maximum displ.:     0.0099825 α      in ANC's #5, #10, #2, ...

........................................................................
.............................. CYCLE    5 ..............................
........................................................................

 iter      E             dE          RMSdq      gap      omega  full diag
   1    -14.0353057 -0.140353E+02  0.368E-02    4.10       0.0  T
   2    -14.0353064 -0.697905E-06  0.178E-02    4.10       1.9  T
   3    -14.0353064  0.869251E-07  0.758E-03    4.10       4.4  T
   4    -14.0353065 -0.135141E-06  0.340E-03    4.10       9.8  T
   5    -14.0353065 -0.537220E-07  0.873E-04    4.10      38.2  T
   6    -14.0353065 -0.236133E-09  0.205E-04    4.10     162.6  T
     SCC iter.                  ...        0 min,  0.000 sec
     gradient                   ...        0 min,  0.001 sec
 * total energy  :   -13.8182736 Eh     change       -0.3728198E-05 Eh
   gradient norm :     0.0010433 Eh/α   predicted    -0.5300642E-05 (  42.18%)
   displ. norm   :     0.0095443 α      lambda       -0.2894725E-05
   maximum displ.:     0.0064299 α      in ANC's #2, #3, #5, ...

........................................................................
.............................. CYCLE    6 ..............................
........................................................................

 iter      E             dE          RMSdq      gap      omega  full diag
   1    -14.0353716 -0.140354E+02  0.130E-02    4.10       0.0  T
   2    -14.0353717 -0.980454E-07  0.626E-03    4.10       5.3  T
   3    -14.0353717  0.764133E-08  0.260E-03    4.10      12.8  T
   4    -14.0353717 -0.126440E-07  0.131E-03    4.10      25.4  T
   5    -14.0353717 -0.795562E-08  0.352E-04    4.10      94.8  T
   6    -14.0353717 -0.333280E-10  0.478E-05    4.10     697.8  T
     SCC iter.                  ...        0 min,  0.000 sec
     gradient                   ...        0 min,  0.001 sec
 * total energy  :   -13.8182749 Eh     change       -0.1262185E-05 Eh
   gradient norm :     0.0003469 Eh/α   predicted    -0.1446827E-05 (  14.63%)
   displ. norm   :     0.0055293 α      lambda       -0.9893067E-06
   maximum displ.:     0.0037319 α      in ANC's #3, #2, #5, ...

........................................................................
.............................. CYCLE    7 ..............................
........................................................................

 iter      E             dE          RMSdq      gap      omega  full diag
   1    -14.0355630 -0.140356E+02  0.751E-03    4.10       0.0  T
   2    -14.0355630 -0.212587E-07  0.383E-03    4.10       8.7  T
   3    -14.0355630  0.448999E-08  0.147E-03    4.10      22.7  T
   4    -14.0355630 -0.609301E-08  0.640E-04    4.10      52.1  T
   5    -14.0355630 -0.188297E-08  0.177E-04    4.10     188.0  T
     SCC iter.                  ...        0 min,  0.000 sec
     gradient                   ...        0 min,  0.002 sec
 * total energy  :   -13.8182753 Eh     change       -0.3827569E-06 Eh
   gradient norm :     0.0003062 Eh/α   predicted    -0.4957539E-06 (  29.52%)
   displ. norm   :     0.0018252 α      lambda       -0.2292452E-06
   maximum displ.:     0.0011170 α      in ANC's #5, #3, #10, ...

   *** GEOMETRY OPTIMIZATION CONVERGED AFTER 7 ITERATIONS ***

------------------------------------------------------------------------
 total energy gain   :        -0.0012343 Eh       -0.7745 kcal/mol
 total RMSD          :         0.0313879 a0        0.0166 Å
 total power (kW/mol):        -0.4629399 (step) -163.0554 (real)
------------------------------------------------------------------------

 ANCopt (total)                0 d,  0 h,  0 min,  0.020 sec
 optimizer setup                ...        0 min,  0.001 sec (  3.656%)
 model hessian                  ...        0 min,  0.001 sec (  6.146%)
 ANC generation                 ...        0 min,  0.000 sec (  1.141%)
 coordinate transformation      ...        0 min,  0.000 sec (  0.132%)
 single point calculation       ...        0 min,  0.016 sec ( 79.402%)
 optimization log               ...        0 min,  0.000 sec (  2.302%)
 hessian update                 ...        0 min,  0.000 sec (  0.085%)
 rational function              ...        0 min,  0.001 sec (  5.769%)

================
 final structure:
================
9
 xtb: 6.7.1 (edcfbbe)
C            1.37575793410726       -0.70023465159575        0.00108074077416
C            1.37123421200414        0.71419392453436        0.00113978854913
C            0.11653224756476        1.22858761236692       -0.00505106503014
S           -1.08487601920598       -0.00088297150273       -0.01039580145702
C            0.12437234515492       -1.22264308874436       -0.00517991948110
H            2.27128447374883       -1.29532487968953        0.00564637708138
H            2.26293478595822        1.31500128044620        0.00576998603559
H           -0.18413207215029        2.25723311491755       -0.00633103242206
H           -0.16970790718187       -2.25319034073265       -0.00659607404994
 
 Bond Distances (Angstroems)
 ---------------------------
C1-C2=1.4144         C1-C5=1.3561         C1-H6=1.0752         C2-C1=1.4144         C2-C3=1.3561         C2-H7=1.0752         
C3-C2=1.3561         C3-S4=1.7190         C3-H8=1.0717         S4-C3=1.7190         S4-C5=1.7190         C5-C1=1.3561         
C5-S4=1.7190         C5-H9=1.0717         H6-C1=1.0752         H7-C2=1.0752         H8-C3=1.0717         H9-C5=1.0717         
 C  H  Rav=1.0735 sigma=0.0018  Rmin=1.0717  Rmax=1.0752     4
 C  C  Rav=1.3755 sigma=0.0275  Rmin=1.3561  Rmax=1.4144     3
 S  C  Rav=1.7190 sigma=0.0000  Rmin=1.7190  Rmax=1.7190     2
 
 selected bond angles (degree)
 --------------------
C5-C1-C2=112.48                H6-C1-C2=123.79                H6-C1-C5=123.74                C3-C2-C1=112.48                
H7-C2-C1=123.79                H7-C2-C3=123.74                S4-C3-C2=112.05                H8-C3-C2=128.59                
H8-C3-S4=119.37                C5-S4-C3= 90.96                S4-C5-C1=112.05                H9-C5-C1=128.59                
H9-C5-S4=119.37                
 
 selected dihedral angles (degree)
 ---------------------------------
C3-C2-C1-C5=  0.00            C3-C2-C1-H6=180.01            H7-C2-C1-C5=179.99            H7-C2-C1-H6=  0.00            
S4-C3-C2-C1=  0.02            S4-C3-C2-H7=180.04            H8-C3-C2-C1=179.99            H8-C3-C2-H7=  0.00            
C5-S4-C3-C2=359.97            C5-S4-C3-H8=180.00            S4-C5-C1-C2=359.97            S4-C5-C1-H6=179.96            
H9-C5-C1-C2=180.01            H9-C5-C1-H6=  0.00            C1-C5-S4-C3=  0.03            H9-C5-S4-C3=180.00            
           -------------------------------------------------
          |                Final Singlepoint                |
           -------------------------------------------------

          ...................................................
          :                      SETUP                      :
          :.................................................:
          :  # basis functions                  30          :
          :  # atomic orbitals                  29          :
          :  # shells                           15          :
          :  # electrons                        26          :
          :  max. iterations                   250          :
          :  Hamiltonian                  GFN2-xTB          :
          :  restarted?                      false          :
          :  GBSA solvation                  false          :
          :  PC potential                    false          :
          :  electronic temp.          300.0000000     K    :
          :  accuracy                    1.0000000          :
          :  -> integral cutoff          0.2500000E+02      :
          :  -> integral neglect         0.1000000E-07      :
          :  -> SCF convergence          0.1000000E-05 Eh   :
          :  -> wf. convergence          0.1000000E-03 e    :
          :  Broyden damping             0.4000000          :
          :  net charge                          0          :
          :  unpaired electrons                  0          :
          ...................................................

 iter      E             dE          RMSdq      gap      omega  full diag
   1    -14.0355630 -0.140356E+02  0.404E-05    4.10       0.0  T
   2    -14.0355630 -0.294875E-12  0.274E-05    4.10    1215.7  T
   3    -14.0355630 -0.897060E-12  0.192E-05    4.10    1737.6  T

   *** convergence criteria satisfied after 3 iterations ***

         #    Occupation            Energy/Eh            Energy/eV
      -------------------------------------------------------------
         1        2.0000           -0.7286346             -19.8272
       ...           ...                  ...                  ...
         7        2.0000           -0.4810147             -13.0891
         8        2.0000           -0.4731852             -12.8760
         9        2.0000           -0.4679745             -12.7342
        10        2.0000           -0.4627842             -12.5930
        11        2.0000           -0.4487522             -12.2112
        12        2.0000           -0.3959075             -10.7732
        13        2.0000           -0.3929659             -10.6931 (HOMO)
        14                         -0.2424178              -6.5965 (LUMO)
        15                         -0.1980691              -5.3897
        16                         -0.1671084              -4.5473
        17                         -0.1113687              -3.0305
        18                          0.0031952               0.0869
       ...                                ...                  ...
        29                          0.7077361              19.2585
      -------------------------------------------------------------
                  HL-Gap            0.1505482 Eh            4.0966 eV
             Fermi-level           -0.3176918 Eh           -8.6448 eV

 SCC (total)                   0 d,  0 h,  0 min,  0.002 sec
 SCC setup                      ...        0 min,  0.000 sec (  4.796%)
 Dispersion                     ...        0 min,  0.000 sec (  0.627%)
 classical contributions        ...        0 min,  0.000 sec (  0.286%)
 integral evaluation            ...        0 min,  0.000 sec ( 24.973%)
 iterations                     ...        0 min,  0.000 sec ( 17.779%)
 molecular gradient             ...        0 min,  0.001 sec ( 46.689%)
 printout                       ...        0 min,  0.000 sec (  4.169%)

         :::::::::::::::::::::::::::::::::::::::::::::::::::::
         ::                     SUMMARY                     ::
         :::::::::::::::::::::::::::::::::::::::::::::::::::::
         :: total energy             -13.818275287177 Eh    ::
         :: gradient norm              0.000305490892 Eh/a0 ::
         :: HOMO-LUMO gap              4.096624550353 eV    ::
         ::.................................................::
         :: SCC energy               -14.035561220899 Eh    ::
         :: -> isotropic ES            0.000822817695 Eh    ::
         :: -> anisotropic ES          0.001072376528 Eh    ::
         :: -> anisotropic XC          0.008273899902 Eh    ::
         :: -> dispersion             -0.006274101191 Eh    ::
         :: repulsion energy           0.217285933721 Eh    ::
         :: add. restraining           0.000000000000 Eh    ::
         :: total charge              -0.000000000000 e     ::
         :::::::::::::::::::::::::::::::::::::::::::::::::::::

           -------------------------------------------------
          |                Property Printout                |
           -------------------------------------------------

    * Orbital Energies and Occupations

         #    Occupation            Energy/Eh            Energy/eV
      -------------------------------------------------------------
         1        2.0000           -0.7286346             -19.8272
         2        2.0000           -0.6404844             -17.4285
         3        2.0000           -0.6118295             -16.6487
         4        2.0000           -0.5695370             -15.4979
         5        2.0000           -0.5526351             -15.0380
         6        2.0000           -0.5344405             -14.5429
         7        2.0000           -0.4810147             -13.0891
         8        2.0000           -0.4731852             -12.8760
         9        2.0000           -0.4679745             -12.7342
        10        2.0000           -0.4627842             -12.5930
        11        2.0000           -0.4487522             -12.2112
        12        2.0000           -0.3959075             -10.7732
        13        2.0000           -0.3929659             -10.6931 (HOMO)
        14                         -0.2424178              -6.5965 (LUMO)
        15                         -0.1980691              -5.3897
        16                         -0.1671084              -4.5473
        17                         -0.1113687              -3.0305
        18                          0.0031952               0.0869
        19                          0.0328671               0.8944
        20                          0.0387895               1.0555
        21                          0.1325777               3.6076
        22                          0.1564304               4.2567
        23                          0.2039419               5.5495
        24                          0.2227543               6.0615
       ...                                ...                  ...
        29                          0.7077361              19.2585
      -------------------------------------------------------------
                  HL-Gap            0.1505482 Eh            4.0966 eV
             Fermi-level           -0.3176918 Eh           -8.6448 eV

     #   Z          covCN         q      C6AA      α(0)
     1   6 C        3.122    -0.044    28.913     8.806
     2   6 C        3.122    -0.044    28.913     8.806
     3   6 C        2.942    -0.021    28.525     8.759
     4  16 S        2.314    -0.025   142.083    20.062
     5   6 C        2.942    -0.021    28.525     8.759
     6   1 H        0.926     0.036     2.507     2.476
     7   1 H        0.926     0.036     2.507     2.476
     8   1 H        0.926     0.042     2.424     2.435
     9   1 H        0.926     0.042     2.424     2.435

 Mol. C6AA /au·bohr⁶  :       1569.268522
 Mol. C8AA /au·bohr⁸  :      48585.079940
 Mol. α(0) /au        :         65.014262


Wiberg/Mayer (AO) data.
largest (>0.10) Wiberg bond orders for each atom

 ---------------------------------------------------------------------------
     #   Z sym  total        # sym  WBO       # sym  WBO       # sym  WBO
 ---------------------------------------------------------------------------
     1   6 C    3.988 --     5 C    1.635     2 C    1.268     6 H    0.965
     2   6 C    3.988 --     3 C    1.635     1 C    1.268     7 H    0.965
     3   6 C    3.950 --     2 C    1.635     4 S    1.196     8 H    0.972
                             5 C    0.120
     4  16 S    2.634 --     5 C    1.196     3 C    1.196
     5   6 C    3.950 --     1 C    1.635     4 S    1.196     9 H    0.972
                             3 C    0.120
     6   1 H    0.999 --     1 C    0.965
     7   1 H    0.999 --     2 C    0.965
     8   1 H    0.998 --     3 C    0.972
     9   1 H    0.998 --     5 C    0.972
 ---------------------------------------------------------------------------

Topologies differ in total number of bonds
Writing topology from bond orders to xtbtopo.mol

molecular dipole:
                 x           y           z       tot (Debye)
 q only:        0.089       0.000       0.000
   full:        0.359       0.001       0.002       0.912
molecular quadrupole (traceless):
                xx          xy          yy          xz          yz          zz
 q only:       -0.171      -0.004       1.266       0.003       0.000      -1.094
  q+dip:       -0.275      -0.008       3.198       0.009       0.000      -2.922
   full:       -1.029      -0.010       2.909      -0.001       0.000      -1.880

           -------------------------------------------------
          |                Geometry Summary                 |
           -------------------------------------------------

      molecular mass/u    :       84.1394940
   center of mass at/Å    :        0.0631582       0.0027889      -0.0051233
  moments of inertia/u·Å² :        0.6178517E+02   0.9349537E+02   0.1552805E+03
rotational constants/cm⁻¹ :        0.2728427E+00   0.1803045E+00   0.1085624E+00

 * 9 selected distances

     #   Z          #   Z                                           value/Å
     1   6 C        2   6 C                                       1.4144359
     2   6 C        3   6 C                                       1.3560666
     3   6 C        4  16 S                                       1.7190139 (max)
     1   6 C        5   6 C                                       1.3560664
     4  16 S        5   6 C                                       1.7190134
     1   6 C        6   1 H                                       1.0752308
     2   6 C        7   1 H                                       1.0752307
     3   6 C        8   1 H                                       1.0716867 (min)
     5   6 C        9   1 H                                       1.0716870

 * 3 distinct bonds (by element types)

   Z      Z             #   av. dist./Å        max./Å        min./Å
   1 H    6 C           4     1.0734588     1.0752308     1.0716867
   6 C    6 C           3     1.3755230     1.4144359     1.3560664
   6 C   16 S           2     1.7190137     1.7190139     1.7190134


optimized geometry written to: xtbopt.xyz


           -------------------------------------------------
          | TOTAL ENERGY              -13.818275287177 Eh   |
          | GRADIENT NORM               0.000305490892 Eh/α |
          | HOMO-LUMO GAP               4.096624550353 eV   |
           -------------------------------------------------

------------------------------------------------------------------------
 * finished run on 2026/03/05 at 16:12:18.378     
------------------------------------------------------------------------
 total:
 * wall-time:     0 d,  0 h,  0 min,  0.070 sec
 *  cpu-time:     0 d,  0 h,  0 min,  0.043 sec
 * ratio c/w:     0.616 speedup
 SCF:
 * wall-time:     0 d,  0 h,  0 min,  0.017 sec
 *  cpu-time:     0 d,  0 h,  0 min,  0.010 sec
 * ratio c/w:     0.559 speedup
 ANC optimizer:
 * wall-time:     0 d,  0 h,  0 min,  0.022 sec
 *  cpu-time:     0 d,  0 h,  0 min,  0.020 sec
 * ratio c/w:     0.903 speedup

