9
 energy: -13.818275287177 gnorm: 0.000305490892 xtb: 6.7.1 (edcfbbe)
C            1.37575793410726       -0.70023465159575        0.00108074077416
C            1.37123421200414        0.71419392453436        0.00113978854913
C            0.11653224756476        1.22858761236692       -0.00505106503014
S           -1.08487601920598       -0.00088297150273       -0.01039580145702
C            0.12437234515492       -1.22264308874436       -0.00517991948110
H            2.27128447374883       -1.29532487968953        0.00564637708138
H            2.26293478595822        1.31500128044620        0.00576998603559
H           -0.18413207215029        2.25723311491755       -0.00633103242206
H           -0.16970790718187       -2.25319034073265       -0.00659607404994
