9
 energy: -13.817041015592 gnorm: 0.034929646507 xtb: 6.7.1 (edcfbbe)
C            1.38751000000000       -0.70559200000000        0.00147600000000
C            1.38296700000000        0.71960200000000        0.00139300000000
C            0.10406700000000        1.23204100000000       -0.00493800000000
S           -1.08316900000000       -0.00090100000000       -0.00999000000000
C            0.11198300000000       -1.22615000000000       -0.00521100000000
H            2.28065500000000       -1.31819900000000        0.00586600000000
H            2.27213400000000        1.33792200000000        0.00542000000000
H           -0.19362100000000        2.27157900000000       -0.00668400000000
H           -0.17912600000000       -2.26756200000000       -0.00724900000000
9
 energy: -13.818180729428 gnorm: 0.010780282079 xtb: 6.7.1 (edcfbbe)
C            1.37787468471921       -0.69968873301634        0.00103135462883
C            1.37335667597221        0.71365191631219        0.00123775270444
C            0.11211764836429        1.22627694787613       -0.00477666268842
S           -1.08286792570252       -0.00088882600777       -0.01133220243380
C            0.11995791390200       -1.22036206041951       -0.00486427323815
H            2.26898187601104       -1.30269383511299        0.00536077811006
H            2.26055925753050        1.32237256117722        0.00560717136184
H           -0.18048809524438        2.25897296628973       -0.00600641994120
H           -0.16609203555235       -2.25490093709864       -0.00617449850360
9
 energy: -13.818251948193 gnorm: 0.004238518515 xtb: 6.7.1 (edcfbbe)
C            1.37557578832253       -0.69924490713795        0.00129620316796
C            1.37105693419815        0.71319826581990        0.00122158305090
C            0.11490566560320        1.22652049425940       -0.00498768580816
S           -1.08361113797469       -0.00088389900099       -0.01019106644700
C            0.12273616459071       -1.22059133848618       -0.00516266222506
H            2.26809324004273       -1.29823930159916        0.00566195973195
H            2.25971111567719        1.31790830079221        0.00558735003607
H           -0.17973322384487        2.25680594602751       -0.00647269048248
H           -0.16533454661496       -2.25273356067475       -0.00686999102418
9
 energy: -13.818269914027 gnorm: 0.001673657433 xtb: 6.7.1 (edcfbbe)
C            1.37531205957677       -0.69973799284424        0.00104345254002
C            1.37078792586925        0.71369276434651        0.00127012675543
C            0.11607817314963        1.22764404153076       -0.00470404756762
S           -1.08450699838522       -0.00088132614167       -0.01148466027511
C            0.12391183854666       -1.22170560043970       -0.00479686563946
H            2.26956631159178       -1.29629220448596        0.00524840645840
H            2.26120453199487        1.31596198981698        0.00561775313555
H           -0.18168397818608        2.25682369117436       -0.00601172687925
H           -0.16726986415767       -2.25276536295704       -0.00609943852796
9
 energy: -13.818273642225 gnorm: 0.001043261732 xtb: 6.7.1 (edcfbbe)
C            1.37575105767651       -0.70056846018476        0.00141923322307
C            1.37122757218641        0.71452928185510        0.00106004659516
C            0.11697752226668        1.22923561411985       -0.00539733653149
S           -1.08547935695573       -0.00088219520185       -0.00875752898789
C            0.12482146848788       -1.22328617411596       -0.00564362299024
H            2.27216556636448       -1.29458524772253        0.00619214139203
H            2.26383084442225        1.31426065756117        0.00573885338553
H           -0.18516714353026        2.25748582460413       -0.00692900947269
H           -0.17072753091822       -2.25344930091514       -0.00759977661349
9
 energy: -13.818274904410 gnorm: 0.000346898907 xtb: 6.7.1 (edcfbbe)
C            1.37583356964877       -0.70038787811413        0.00103296640256
C            1.37130769713662        0.71434851528131        0.00141984695621
C            0.11665230548513        1.22886845754675       -0.00436408484110
S           -1.08508875262387       -0.00088237278256       -0.01247684256522
C            0.12449346486217       -1.22292246497411       -0.00442274564846
H            2.27171317164439       -1.29509393045087        0.00490451155760
H            2.26336495435225        1.31477082908462        0.00546646282231
H           -0.18465195394804        2.25740016308277       -0.00576671955095
H           -0.17022445655742       -2.25336131867377       -0.00571039513295
9
 energy: -13.818275287167 gnorm: 0.000306194528 xtb: 6.7.1 (edcfbbe)
C            1.37575793410726       -0.70023465159575        0.00108074077416
C            1.37123421200414        0.71419392453436        0.00113978854913
C            0.11653224756476        1.22858761236692       -0.00505106503014
S           -1.08487601920598       -0.00088297150273       -0.01039580145702
C            0.12437234515492       -1.22264308874436       -0.00517991948110
H            2.27128447374883       -1.29532487968953        0.00564637708138
H            2.26293478595822        1.31500128044620        0.00576998603559
H           -0.18413207215029        2.25723311491755       -0.00633103242206
H           -0.16970790718187       -2.25319034073265       -0.00659607404994
