
                                 *****************
                                 * O   R   C   A *
                                 *****************

                                            #,                                       
                                            ###                                      
                                            ####                                     
                                            #####                                    
                                            ######                                   
                                           ########,                                 
                                     ,,################,,,,,                         
                               ,,#################################,,                 
                          ,,##########################################,,             
                       ,#########################################, ''#####,          
                    ,#############################################,,   '####,        
                  ,##################################################,,,,####,       
                ,###########''''           ''''###############################       
              ,#####''   ,,,,##########,,,,          '''####'''          '####       
            ,##' ,,,,###########################,,,                        '##       
           ' ,,###''''                  '''############,,,                           
         ,,##''                                '''############,,,,        ,,,,,,###''
      ,#''                                            '''#######################'''  
     '                                                          ''''####''''         
             ,#######,   #######,   ,#######,      ##                                
            ,#'     '#,  ##    ##  ,#'     '#,    #''#        ,####,    ,#,          
            ##       ##  ##   ,#'  ##            #'  '#       #'       ,# #          
            ##       ##  #######   ##           ,######,      #####,      #          
            '#,     ,#'  ##    ##  '#,     ,#' ,#      #,     #,   #      #          
             '#######'   ##     ##  '#######'  #'      '#     '####' #    #          



                #########################################################
                #                        -***-                          #
                #          Department of theory and spectroscopy        #
                #                                                       #
                #                      Frank Neese                      #
                #                                                       #
                #     Directorship, Architecture, Infrastructure        #
                #                    SHARK, DRIVERS                     #
                #        Core code/Algorithms in most modules           #
                #                                                       #
                #        Max Planck Institute fuer Kohlenforschung      #
                #                Kaiser Wilhelm Platz 1                 #
                #                 D-45470 Muelheim/Ruhr                 #
                #                      Germany                          #
                #                                                       #
                #                  All rights reserved                  #
                #                        -***-                          #
                #########################################################


                         Program Version 6.1.0  -  RELEASE   -
                                (GIT: $679e74b$)
                          ($2025-06-10 18:02:51 +0200$)


 With contributions from (in alphabetic order):
[Max-Planck-Institut fuer Kohlenforschung]                               
  Daniel Aravena         : Magnetic Suceptibility                        
  Michael Atanasov       : Ab Initio Ligand Field Theory (pilot matlab implementation)
  Alexander A. Auer      : GIAO ZORA, VPT2 properties, NMR spectrum      
  Ute Becker             : All parallelization in ORCA, NUMFREQ, NUMCALC 
  Giovanni Bistoni       : ED, misc. LED, open-shell LED, HFLD           
  Dmytro Bykov           : pre 5.0 version of the SCF Hessian            
  Marcos Casanova-Páez   : Triplet and SCS-CIS(D). UHF-(DLPNO)-IP/EA/STEOM-CCSD. UHF-CVS-IP/STEOM-CCSD   
  Vijay G. Chilkuri      : MRCI spin determinant printing, contributions to CSF-ICE 
  Pauline Colinet        : FMM embedding                                 
  Dipayan Datta          : RHF DLPNO-CCSD density                        
  Achintya Kumar Dutta   : EOM-CC, STEOM-CC                              
  Nicolas Foglia         : Exact transition moments, OPA infrastructure, MCD improvements    
  Dmitry Ganyushin       : Spin-Orbit,Spin-Spin,Magnetic field MRCI      
  Miquel Garcia-Rates    : C-PCM and meta-GGA Hessian, CCSD/C-PCM, Gaussian charge scheme 
  Tiago L. C. Gouveia    : GS-ROHF, GS-ROCIS                             
  Yang Guo               : DLPNO-NEVPT2, F12-NEVPT2, CIM, IAO-localization        
  Andreas Hansen         : Spin unrestricted coupled pair/coupled cluster methods 
  Ingolf Harden          : AUTO-CI MPn and infrastructure                
  Benjamin Helmich-Paris : MC-RPA, TRAH-(SCF,CASSCF), AVAS, COSX integrals, SCF dyn. polar., MC-PDFT, srDFT 
  Lee Huntington         : MR-EOM, pCC                                   
  Robert Izsak           : Overlap fitted RIJCOSX, COSX-SCS-MP3, EOM     
  Riya Kayal             : Wick's Theorem for AUTO-CI, AUTO-CI UHF-CCSDT 
  Emily Kempfer          : AUTO-CI RHF CISDT and CCSDT, approximate NEVPT4
  Christian Kollmar      : KDIIS, OOCD, Brueckner-CCSD(T), CCSD density, CASPT2, CASPT2-K, improved NEVPT2 
  Axel Koslowski         : Symmetry handling                             
  Simone Kossmann        : meta-GGA functionals, TD-DFT gradient, OOMP2, (MP2 Hessian; deprecated post 5.0) 
  Lucas Lang             : DCDCAS, Hyperfine gauge corrections, ICE-SOC+SSC
  Marvin Lechner         : AUTO-CI (C++ implementation), FIC-MRCC        
  Spencer Leger          : CASSCF response                               
  Dagmar Lenk            : GEPOL surface, SMD, ORCA-2-JSON               
  Dimitrios Liakos       : Extrapolation schemes; Compound Job, Property file
  Dimitrios Manganas     : Further ROCIS development; embedding schemes. LFT, Crystal Embedding 
  Dimitrios Pantazis     : SARC Basis sets                               
  Anastasios Papadopoulos: AUTO-CI, single reference methods and gradients 
  Taras Petrenko         : pre 6.0 DFT Hessian and TD-DFT gradient,  ECA, NRVS 
  Petra Pikulova         : Analytic Raman intensities                    
  Peter Pinski           : DLPNO-MP2, DLPNO-MP2 Gradient                 
  Shashank Vittal Rao    : ES-AILFT, MagRelax                            
  Christoph Reimann      : Effective Core Potentials                     
  Marius Retegan         : Local ZFS, SOC                                
  Christoph Riplinger    : Optimizer, TS searches, QM/MM, DLPNO-CCSD(T), (RO)-DLPNO pert. Triples 
  Michael Roemelt        : Original ROCIS implementation, recursive CI coupling coefficients
  Masaaki Saitow         : Open-shell DLPNO-CCSD energy and density      
  Barbara Sandhoefer     : DKH picture change effects                    
  Yorick L. A. Schmerwitz: GMF and freeze-and-release deltaSCF, NEB S-IDPP initial path                    
  Kantharuban Sivalingam : CASSCF convergence/infrastructure, NEVPT2, NEVPT3, NEVPT4(SD), FIC-MRCI and CEPA variants
  Bernardo de Souza      : ESD, SOC TD-DFT                               
  Georgi L. Stoychev     : AutoAux, RI-MP2 NMR, DLPNO-MP2 response, X2C  
  Van Anh Tran           : RI-MP2 g-tensors                              
  Willem Van den Heuvel  : Paramagnetic NMR                              
  Zikuan Wang            : NOTCH, Electric field optimization            
  Frank Wennmohs         : Technical directorship and infrastructure     
  Hang Xu                : AUTO-CI-Response properties                   
                                                                         
[FACCTs GmbH]                                                            
  Markus Bursch, Nicolas Foglia, Miquel Garcia-Rates, Ingolf Harden, Hagen Neugebauer, Anastasios Papadopoulos, 
  Christoph Riplinger, Bernardo de Souza, Georgi L. Stoychev                                                    
                                                                 
  APM, various basis sets, CI-OPT, improved COSX, DLPNO-Multilevel,           
  DOCKER, DRACO, updates on ESD, Fragmentator, GOAT, IRC, LR-CPCM, L-BFGS, MBIS, meta-GGA TD-DFT gradient, ML-optimized integration grids, 
  MM, NACMEs, nearIR, NEB, NEB-TS, NL-DFT gradient (VV10), 2- and 3-layer-ONIOM, interface openCOSMO-RS, QMMM,   
  Crystal-QMMM, RESP, rigid body optimization, SF, symmetry and pop. for TD-DFT, various functionals, SOLVATOR                                   
                                                                         
[Other institutions]                                                     
  V. Asgeirsson          : NEB                                           
  Christoph Bannwarth    : sTDA-DFT, sTD-DFT, PBEh-3c, B97-3c, D3        
  Giovanni Bistoni       : ETS/NOCV, ADLD/ADEX, COVALED                  
  Martin Brehm           : Molecular dynamics                            
  Ronald Cardenas        : ETS/NOCV                                      
  Martina Colucci        : COVALED                                       
  Sebastian Ehlert       : rSCAN, r2SCAN, r2SCAN-3c, D4, dhf basis sets  
  Marvin Friede          : D4 for Fr, Ra, Ac-Lr                          
  Lars Goerigk           : TD-DFT with DH, B97 family of functionals     
  Stefan Grimme          : VdW corrections, initial TS optimization, DFT functionals, gCP, sTDA/sTD-DF 
  Waldemar Hujo          : DFT-NL                                        
  H. Jonsson             : NEB                                           
  Holger Kruse           : gCP                                           
  Marcel Mueller         : wB97X-3c, vDZP basis set                      
  Hagen Neugebauer       : wr2SCAN, Native XTB                           
  Gianluca Regni         : ADLD/ADEX                                     
  Tobias Risthaus        : pre 6.0 range-separated hybrid DFT and stability analysis
  Lukas Wittmann         : regularized MP2, r2SCAN double-hybrids, wr2SCAN        
                                                                         
We gratefully acknowledge several colleagues who have allowed us to      
interface, adapt or use parts of their codes:                            
  Ed Valeev, F. Pavosevic, A. Kumar             : LibInt (2-el integral package), F12 methods 
  Garnet Chan, S. Sharma, J. Yang, R. Olivares  : DMRG                   
  Ulf Ekstrom                                   : XCFun DFT Library      
  Mihaly Kallay                                 : mrcc  (arbitrary order and MRCC methods)
  Frank Weinhold                                : gennbo (NPA and NBO analysis)           
  Simon Mueller                                 : openCOSMO-RS                            
  Christopher J. Cramer and Donald G. Truhlar   : smd solvation model                     
  S Lehtola, MJT Oliveira, MAL Marques          : LibXC Library                           
  Liviu Ungur et al                             : ANISO software                          


 Your calculation uses the libint2 library for the computation of 2-el integrals
 For citations please refer to: http://libint.valeyev.net

 Your ORCA version has been built with support for libXC version: 7.0.0
 For citations please refer to: https://libxc.gitlab.io

 This ORCA versions uses:
   CBLAS   interface :  Fast vector & matrix operations
   LAPACKE interface :  Fast linear algebra routines
   SCALAPACK package :  Parallel linear algebra routines
   Shared memory     :  Shared parallel matrices
   BLAS/LAPACK       :  OpenBLAS 0.3.29  USE64BITINT DYNAMIC_ARCH NO_AFFINITY Cooperlake SINGLE_THREADED
        Core in use  :  Cooperlake
   Copyright (c) 2011-2014, The OpenBLAS Project


  ***********************************
  * Starting time: Thu Mar  5 16:16:13 2026
  * Host name:     beckman
  * Process ID:    17261
  * Working dir.:  /home/vpalacio/Documents/test/thiophene
  ***********************************

NOTE: MaxCore=3000 MB was set to SCF,MP2,MDCI,CIPSI,MRCI,RASCI and CIS
      => If you want to overwrite this, your respective input block should be placed after the MaxCore statement


***************************************
The coordinates will be read from file: geometry.xtbopt.xyz
***************************************


Your calculation utilizes the atom-pairwise dispersion correction
with the Becke-Johnson damping scheme (D3BJ)


================================================================================

----- Orbital basis set information -----
Your calculation utilizes the basis: def2-SVP
   F. Weigend and R. Ahlrichs, Phys. Chem. Chem. Phys. 7, 3297 (2005).

----- AuxJ basis set information -----
Your calculation utilizes the auxiliary basis: def2/J
   H-Rn: F. Weigend, Phys. Chem. Chem. Phys. 8, 1057 (2006).
   Fr-Lr: K. Eichkorn, F. Weigend, O. Treutler, R. Ahlrichs; Theor. Chem. Acc. 97, 119 (1997).

================================================================================
                                        WARNINGS
                       Please study these warnings very carefully!
================================================================================


================================================================================
                                       INPUT FILE
================================================================================
NAME = thiophene.inp
|  1> ! revPBE def2-SVP def2/J Hirshfeld CHELPG RIJONX D3 Energy KeepDens
|  2> %chelpg
|  3> DIPOLE TRUE
|  4> end
|  5> %plots
|  6> Format Gaussian_Cube
|  7> ElDens("eldens.cube");
|  8> MO("homo.cube", 21, 0);
|  9> MO("lumo.cube", 22, 0);
| 10> end
| 11> %maxcore 3000
| 12> %elprop
| 13> Polar 1
| 14> Quadrupole True
| 15> end
| 16> * xyzfile 0 1 geometry.xtbopt.xyz
| 17> 
| 18>                          ****END OF INPUT****
================================================================================

                       ****************************
                       * Single Point Calculation *
                       ****************************

---------------------------------
CARTESIAN COORDINATES (ANGSTROEM)
---------------------------------
  C      1.375758   -0.700235    0.001081
  C      1.371234    0.714194    0.001140
  C      0.116532    1.228588   -0.005051
  S     -1.084876   -0.000883   -0.010396
  C      0.124372   -1.222643   -0.005180
  H      2.271284   -1.295325    0.005646
  H      2.262935    1.315001    0.005770
  H     -0.184132    2.257233   -0.006331
  H     -0.169708   -2.253190   -0.006596

----------------------------
CARTESIAN COORDINATES (A.U.)
----------------------------
  NO LB      ZA    FRAG     MASS         X           Y           Z
   0 C     6.0000    0    12.011    2.599806   -1.323252    0.002042
   1 C     6.0000    0    12.011    2.591257    1.349631    0.002154
   2 C     6.0000    0    12.011    0.220214    2.321694   -0.009545
   3 S    16.0000    0    32.060   -2.050119   -0.001669   -0.019645
   4 C     6.0000    0    12.011    0.235030   -2.310461   -0.009789
   5 H     1.0000    0     1.008    4.292106   -2.447809    0.010670
   6 H     1.0000    0     1.008    4.276327    2.484992    0.010904
   7 H     1.0000    0     1.008   -0.347959    4.265552   -0.011964
   8 H     1.0000    0     1.008   -0.320701   -4.257913   -0.012465

--------------------------------
INTERNAL COORDINATES (ANGSTROEM)
--------------------------------
 C      0   0   0     0.000000000000     0.00000000     0.00000000
 C      1   0   0     1.414435811383     0.00000000     0.00000000
 C      2   1   0     1.356066448342   112.47528317     0.00000000
 S      3   2   1     1.719013759768   112.04682908     0.02453717
 C      1   2   3     1.356066245914   112.47529259     0.00000000
 H      1   2   3     1.075230676557   123.78749664   180.01026666
 H      2   1   3     1.075230594448   123.78759445   179.98879455
 H      3   2   1     1.071686633949   128.58537789   179.98964545
 H      5   1   2     1.071686912717   128.58549614   180.00735077

---------------------------
INTERNAL COORDINATES (A.U.)
---------------------------
 C      0   0   0     0.000000000000     0.00000000     0.00000000
 C      1   0   0     2.672896317524     0.00000000     0.00000000
 C      2   1   0     2.562594206765   112.47528317     0.00000000
 S      3   2   1     3.248465226405   112.04682908     0.02453717
 C      1   2   3     2.562593824233   112.47529259     0.00000000
 H      1   2   3     2.031891509484   123.78749664   180.01026666
 H      2   1   3     2.031891354320   123.78759445   179.98879455
 H      3   2   1     2.025194239547   128.58537789   179.98964545
 H      5   1   2     2.025194766343   128.58549614   180.00735077

---------------------
BASIS SET INFORMATION
---------------------
There are 3 groups of distinct atoms

 Group   1 Type C   : 7s4p1d contracted to 3s2p1d pattern {511/31/1}
 Group   2 Type S   : 10s7p1d contracted to 4s3p1d pattern {5311/511/1}
 Group   3 Type H   : 4s1p contracted to 2s1p pattern {31/1}

Atom   0C    basis set group =>   1
Atom   1C    basis set group =>   1
Atom   2C    basis set group =>   1
Atom   3S    basis set group =>   2
Atom   4C    basis set group =>   1
Atom   5H    basis set group =>   3
Atom   6H    basis set group =>   3
Atom   7H    basis set group =>   3
Atom   8H    basis set group =>   3
---------------------------------
AUXILIARY/J BASIS SET INFORMATION
---------------------------------
There are 3 groups of distinct atoms

 Group   1 Type C   : 12s5p4d2f1g contracted to 6s4p3d1f1g pattern {711111/2111/211/2/1}
 Group   2 Type S   : 14s5p5d2f1g contracted to 8s4p3d1f1g pattern {71111111/2111/311/2/1}
 Group   3 Type H   : 5s2p1d contracted to 3s1p1d pattern {311/2/1}

Atom   0C    basis set group =>   1
Atom   1C    basis set group =>   1
Atom   2C    basis set group =>   1
Atom   3S    basis set group =>   2
Atom   4C    basis set group =>   1
Atom   5H    basis set group =>   3
Atom   6H    basis set group =>   3
Atom   7H    basis set group =>   3
Atom   8H    basis set group =>   3
------------------------------------------------------------------------------
                             ORCA STARTUP CALCULATIONS
                           -- RI-GTO INTEGRALS CHOSEN --
------------------------------------------------------------------------------
------------------------------------------------------------------------------
                   ___                                                        
                  /   \      - P O W E R E D   B Y -                         
                 /     \                                                     
                 |  |  |   _    _      __       _____    __    __             
                 |  |  |  | |  | |    /  \     |  _  \  |  |  /  |          
                  \  \/   | |  | |   /    \    | | | |  |  | /  /          
                 / \  \   | |__| |  /  /\  \   | |_| |  |  |/  /          
                |  |  |   |  __  | /  /__\  \  |    /   |      \           
                |  |  |   | |  | | |   __   |  |    \   |  |\   \          
                \     /   | |  | | |  |  |  |  | |\  \  |  | \   \       
                 \___/    |_|  |_| |__|  |__|  |_| \__\ |__|  \__/        
                                                                              
                      - O R C A' S   B I G   F R I E N D -                    
                                      &                                       
                       - I N T E G R A L  F E E D E R -                       
                                                                              
 v1 FN, 2020, v2 2021, v3 2022-2024                                           
------------------------------------------------------------------------------


----------------------
SHARK INTEGRAL PACKAGE
----------------------

Number of atoms                             ...      9
Number of basis functions                   ...     94
Number of shells                            ...     44
Maximum angular momentum                    ...      2
Integral batch strategy                     ... SHARK/LIBINT Hybrid
RI-J (if used) integral strategy            ... SPLIT-RIJ (Revised 2003 algorithm where possible)
Printlevel                                  ...      1
Contraction scheme used                     ... SEGMENTED contraction
Prescreening option                         ... SCHWARTZ
   Thresh                                   ... 1.000e-10
   Tcut                                     ... 1.000e-11
   Tpresel                                  ... 1.000e-11 
Coulomb Range Separation                    ... NOT USED
Exchange Range Separation                   ... NOT USED
Multipole approximations                    ... NOT USED
Finite Nucleus Model                        ... NOT USED
CABS basis                                  ... NOT available
Auxiliary Coulomb fitting basis             ... AVAILABLE
   # of basis functions in Aux-J            ...    291
   # of shells in Aux-J                     ...     97
   Maximum angular momentum in Aux-J        ...      4
Auxiliary J/K fitting basis                 ... NOT available
Auxiliary Correlation fitting basis         ... NOT available
Auxiliary 'external' fitting basis          ... NOT available

Checking pre-screening integrals            ... done (  0.0 sec) Dimension = 44
   => SHARK Basis and OBASIS are compatible. Storing Pre-screening
Shell pair information
Shell pair cut-off parameter TPreSel        ...   1.0e-11
Total number of shell pairs                 ...       990
Shell pairs after pre-screening             ...       975
Total number of primitive shell pairs       ...      3828
Primitive shell pairs kept                  ...      2939
          la=0 lb=0:    291 shell pairs
          la=1 lb=0:    354 shell pairs
          la=1 lb=1:    120 shell pairs
          la=2 lb=0:    120 shell pairs
          la=2 lb=1:     75 shell pairs
          la=2 lb=2:     15 shell pairs

Checking whether 4 symmetric matrices of dimension 94 fit in memory
:Max Core in MB      =   3000.00
 MB in use           =      4.56
 MB left             =   2995.44
 MB needed           =      0.14
 Data fit in memory  = YES
Calculating RI/J V-Matrix + Cholesky decomp.... done (  0.0 sec)
Calculating Nuclear repulsion               ... done (  0.0 sec) ENN=    203.541125660614 Eh

Diagonalization of the overlap matrix:
Smallest eigenvalue                        ... 9.690e-04
Time for diagonalization                   ...    0.002 sec
Threshold for overlap eigenvalues          ... 1.000e-07
Number of eigenvalues below threshold      ... 0
Time for construction of square roots      ...    0.000 sec
Total time needed                          ...    0.003 sec

-------------------
DFT GRID GENERATION
-------------------

General Integration Accuracy     IntAcc      ... 4.388
Radial Grid Type                 RadialGrid  ... OptM3 with GC (2021)
Angular Grid (max. ang.)         AngularGrid ... 4 (Lebedev-302)
Angular grid pruning method      GridPruning ... 4 (adaptive)
Weight generation scheme         WeightScheme... mBecke (2022)
Basis function cutoff            BFCut       ... 1.0000e-10
Integration weight cutoff        WCut        ... 1.0000e-14
Partially contracted basis set               ... off
Rotationally invariant grid construction     ... off
Angular grids for H and He will be reduced by one unit

Total number of grid points                  ...    44476
Total number of batches                      ...      700
Average number of points per batch           ...       63
Average number of grid points per atom       ...     4942
Grids setup in   0.2 sec
Initializing property integral containers    ... done (  0.0 sec)

SHARK setup successfully completed in   0.2 seconds

Maximum memory used throughout the entire STARTUP-calculation: 19.0 MB
-------------------------------------------------------------------------------
                                 ORCA GUESS
                   Start orbitals & Density for SCF / CASSCF
-------------------------------------------------------------------------------

------------
SCF SETTINGS
------------
Hamiltonian:
 Density Functional     Method          .... DFT(GTOs)
 Exchange Functional    Exchange        .... PBE
   PBE kappa parameter   XKappa         ....  1.245000
   PBE mue parameter    XMuePBE         ....  0.219520
 Correlation Functional Correlation     .... PBE
   PBE beta parameter  CBetaPBE         ....  0.066725
 LDA part of GGA corr.  LDAOpt          .... PW91-LDA
 Gradients option       PostSCFGGA      .... off
   NL short-range parameter             ....  3.700000
 RI-approximation to the Coulomb term is turned on
   Number of AuxJ basis functions       .... 291


General Settings:
 Integral files         IntName         .... thiophene
 Hartree-Fock type      HFTyp           .... RHF
 Total Charge           Charge          ....    0
 Multiplicity           Mult            ....    1
 Number of Electrons    NEL             ....   44
 Basis Dimension        Dim             ....   94
 Nuclear Repulsion      ENuc            ....    203.5411256606 Eh

Convergence Acceleration:
 AO-DIIS                CNVDIIS         .... on
   Start iteration      DIISMaxIt       ....    12
   Startup error        DIISStart       ....  0.200000
   # of expansion vecs  DIISMaxEq       ....     5
   Bias factor          DIISBfac        ....   1.050
   Max. coefficient     DIISMaxC        ....  10.000
 MO-DIIS                CNVKDIIS        .... off
 Trust-Rad. Augm. Hess. CNVTRAH         .... auto
   Auto Start mean grad. ratio tolernc. ....  1.125000
   Auto Start start iteration           ....    50
   Auto Start num. interpolation iter.  ....    10
   Max. Number of Micro iterations      ....    24
   Max. Number of Macro iterations      .... Maxiter - #DIIS iter
   Number of Davidson start vectors     ....     2
   Converg. threshold    (grad. norm)   ....   5.000e-05
   Grad. Scal. Fac. for Micro threshold ....   0.100
   Minimum threshold for Micro iter.    ....   1.000e-02
   NR start threshold (gradient norm)   ....   1.000e-04
   Initial trust radius                 ....   0.400
   Minimum AH scaling param. (alpha)    ....   1.000
   Maximum AH scaling param. (alpha)    .... 1000.000
   Quad. conv. algorithm                .... NR
   White noise on init. David. guess    .... on
   Maximum white noise                  ....   0.010
   Pseudo random numbers                .... off
   Inactive MOs                         .... canonical
   Orbital update algorithm             .... Taylor
   Preconditioner                       .... Diag
   Full preconditioner red. dimension   ....   250
   COSX micro iterations for RIJONX calc.... off
 SOSCF                 CNVSOSCF           .... on
   Start iteration     SOSCFMaxIt         ....   150
   Startup grad/error  SOSCFStart         ....  0.003300
   Hessian update      SOSCFHessUp        .... L-BFGS
   Autom. constraints  SOSCFAutoConstrain .... off
 Level Shifting         CNVShift        .... on
   Level shift para.    LevelShift      ....    0.2500
   Turn off err/grad.   ShiftErr        ....    0.0010
 Zerner damping         CNVZerner       .... off
 Static damping         CNVDamp         .... on
   Fraction old density DampFac         ....    0.7000
   Max. Damping (<1)    DampMax         ....    0.9800
   Min. Damping (>=0)   DampMin         ....    0.0000
   Turn off err/grad.   DampErr         ....    0.1000

SCF Procedure:
 Maximum # iterations   MaxIter         ....   125
 SCF integral mode      SCFMode         .... Direct
   Integral package                     .... SHARK and LIBINT hybrid scheme
 Reset frequency        DirectResetFreq ....    20
 Integral Threshold     Thresh          ....  1.000e-10 Eh
 Primitive CutOff       TCut            ....  1.000e-11 Eh

Convergence Tolerance:
 Convergence Check Mode ConvCheckMode   .... Total+1el-Energy
 Convergence forced     ConvForced      .... 0
 Energy Change          TolE            ....  1.000e-06 Eh
 1-El. energy change                    ....  1.000e-03 Eh
 Orbital Gradient       TolG            ....  5.000e-05
 Orbital Rotation angle TolX            ....  5.000e-05
 DIIS Error             TolErr          ....  1.000e-06

------------------------------
INITIAL GUESS: MODEL POTENTIAL
------------------------------
Loading Hartree-Fock densities                     ... done
Calculating cut-offs                               ... done
Initializing the effective Hamiltonian             ... done
Setting up the integral package (SHARK)            ... done
Starting the Coulomb interaction                   ... done (   0.0 sec)
Making the grid                                    ... done (   0.0 sec)
Mapping shells                                     ... done
Starting the XC term evaluation                    ... done (   0.0 sec)
  promolecular density results
     # of electrons  =     43.997236215
     EX              =    -46.797690503
     EC              =     -1.542099354
     EX+EC           =    -48.339789857
Transforming the Hamiltonian                       ... done (   0.0 sec)
Diagonalizing the Hamiltonian                      ... done (   0.0 sec)
Back transforming the eigenvectors                 ... done (   0.0 sec)
Now organizing SCF variables                       ... done
                      ------------------
                      INITIAL GUESS DONE (   0.1 sec)
                      ------------------
             **** ENERGY FILE WAS UPDATED (thiophene.en.tmp) ****
Finished Guess after   0.1 sec
Maximum memory used throughout the entire GUESS-calculation: 7.7 MB

-------------------------------------------------------------------------------------------
                                      ORCA LEAN-SCF
                              memory conserving SCF solver
-------------------------------------------------------------------------------------------

----------------------------------------D-I-I-S--------------------------------------------
Iteration    Energy (Eh)           Delta-E    RMSDP     MaxDP     DIISErr   Damp  Time(sec)
-------------------------------------------------------------------------------------------
               ***  Starting incremental Fock matrix formation  ***
    1    -552.5173913461139819     0.00e+00  5.23e-03  6.23e-02  1.21e-01  0.700   0.2
    2    -552.5931356585380172    -7.57e-02  3.49e-03  5.23e-02  5.21e-02  0.700   0.1
                               ***Turning on AO-DIIS***
    3    -552.6131595473392508    -2.00e-02  1.28e-03  3.05e-02  1.62e-02  0.700   0.1
    4    -552.6253420653449666    -1.22e-02  2.46e-03  6.04e-02  1.45e-02  0.000   0.1
    5    -552.6568667545501512    -3.15e-02  7.40e-04  1.61e-02  8.73e-03  0.000   0.1
                              *** Initializing SOSCF ***
---------------------------------------S-O-S-C-F--------------------------------------
Iteration    Energy (Eh)           Delta-E    RMSDP     MaxDP     MaxGrad    Time(sec)
--------------------------------------------------------------------------------------
    6    -552.6576843562073691    -8.18e-04  2.53e-04  6.25e-03  2.90e-03     0.1
               *** Restarting incremental Fock matrix formation ***
    7    -552.6577684814135409    -8.41e-05  2.37e-04  6.85e-03  1.00e-03     0.1
    8    -552.6577656291324274     2.85e-06  1.26e-04  1.70e-03  9.65e-04     0.1
    9    -552.6577800186287277    -1.44e-05  8.64e-05  2.09e-03  2.53e-04     0.1
   10    -552.6577797565071251     2.62e-07  3.44e-05  5.18e-04  3.71e-04     0.1
                 **** Energy Check signals convergence ****

               *****************************************************
               *                     SUCCESS                       *
               *           SCF CONVERGED AFTER  10 CYCLES          *
               *****************************************************

             **** ENERGY FILE WAS UPDATED (thiophene.en.tmp) ****

----------------
TOTAL SCF ENERGY
----------------

Total Energy       :       -552.65778096733663 Eh          -15038.58277 eV

Components:
Nuclear Repulsion  :        203.54112566061426 Eh            5538.63561 eV
Electronic Energy  :       -756.19890662795092 Eh          -20577.21837 eV
One Electron Energy:      -1160.76949063617462 Eh          -31586.14365 eV
Two Electron Energy:        404.57058400822370 Eh           11008.92527 eV

Virial components:
Potential Energy   :      -1102.91560085967649 Eh          -30011.85927 eV
Kinetic Energy     :        550.25781989233974 Eh           14973.27651 eV
Virial Ratio       :          2.00436152106928

DFT components:
N(Alpha)           :       21.999997415658 electrons
N(Beta)            :       21.999997415658 electrons
N(Total)           :       43.999994831317 electrons
E(X)               :      -47.224020383019 Eh       
E(C)               :       -1.552253866920 Eh       
E(XC)              :      -48.776274249940 Eh       

---------------
SCF CONVERGENCE
---------------

  Last Energy change         ...   -2.6212e-07  Tolerance :   1.0000e-06
  Last MAX-Density change    ...    5.1805e-04  Tolerance :   1.0000e-05
  Last RMS-Density change    ...    3.4352e-05  Tolerance :   1.0000e-06
  Last DIIS Error            ...    2.8999e-03  Tolerance :   1.0000e-06
  Last Orbital Gradient      ...    3.7141e-04  Tolerance :   5.0000e-05
  Last Orbital Rotation      ...    5.8598e-04  Tolerance :   5.0000e-05


----------------
ORBITAL ENERGIES
----------------

  NO   OCC          E(Eh)            E(eV) 
   0   2.0000     -88.072620     -2396.5778 
   1   2.0000      -9.924923      -270.0709 
   2   2.0000      -9.924904      -270.0704 
   3   2.0000      -9.906744      -269.5762 
   4   2.0000      -9.906611      -269.5726 
   5   2.0000      -7.706020      -209.6915 
   6   2.0000      -5.727523      -155.8538 
   7   2.0000      -5.722867      -155.7271 
   8   2.0000      -5.720277      -155.6566 
   9   2.0000      -0.805599       -21.9215 
  10   2.0000      -0.664891       -18.0926 
  11   2.0000      -0.649841       -17.6831 
  12   2.0000      -0.503834       -13.7100 
  13   2.0000      -0.495705       -13.4888 
  14   2.0000      -0.465273       -12.6607 
  15   2.0000      -0.364883        -9.9290 
  16   2.0000      -0.347857        -9.4657 
  17   2.0000      -0.345222        -9.3940 
  18   2.0000      -0.341414        -9.2903 
  19   2.0000      -0.306425        -8.3383 
  20   2.0000      -0.224408        -6.1064 
  21   2.0000      -0.210624        -5.7314 
  22   0.0000      -0.037998        -1.0340 
  23   0.0000       0.019245         0.5237 
  24   0.0000       0.031311         0.8520 
  25   0.0000       0.053743         1.4624 
  26   0.0000       0.085767         2.3338 
  27   0.0000       0.092618         2.5203 
  28   0.0000       0.122031         3.3206 
  29   0.0000       0.129962         3.5364 
  30   0.0000       0.244941         6.6652 
  31   0.0000       0.280753         7.6397 
  32   0.0000       0.314960         8.5705 
*Only the first 10 virtual orbitals were printed.

                    ********************************
                    * MULLIKEN POPULATION ANALYSIS *
                    ********************************

-----------------------
MULLIKEN ATOMIC CHARGES
-----------------------
   0 C :    0.038715
   1 C :    0.038717
   2 C :   -0.088818
   3 S :    0.080463
   4 C :   -0.088822
   5 H :   -0.013579
   6 H :   -0.013579
   7 H :    0.023450
   8 H :    0.023452
Sum of atomic charges:    0.0000000

--------------------------------
MULLIKEN REDUCED ORBITAL CHARGES
--------------------------------
  0 C s       :     3.154615  s :     3.154615
      pz      :     1.020186  p :     2.772198
      px      :     0.834433
      py      :     0.917579
      dz2     :     0.002452  d :     0.034472
      dxz     :     0.004697
      dyz     :     0.005732
      dx2y2   :     0.010371
      dxy     :     0.011221

  1 C s       :     3.154618  s :     3.154618
      pz      :     1.020187  p :     2.772193
      px      :     0.835145
      py      :     0.916862
      dz2     :     0.002452  d :     0.034471
      dxz     :     0.004724
      dyz     :     0.005705
      dx2y2   :     0.010372
      dxy     :     0.011219

  2 C s       :     3.165409  s :     3.165409
      pz      :     1.115218  p :     2.888842
      px      :     0.910132
      py      :     0.863492
      dz2     :     0.002829  d :     0.034568
      dxz     :     0.007253
      dyz     :     0.002882
      dx2y2   :     0.008547
      dxy     :     0.013057

  3 S s       :     5.854205  s :     5.854205
      pz      :     3.625661  p :     9.949559
      px      :     3.330451
      py      :     2.993447
      dz2     :     0.012077  d :     0.115772
      dxz     :     0.012312
      dyz     :     0.025928
      dx2y2   :     0.019599
      dxy     :     0.045855

  4 C s       :     3.165408  s :     3.165408
      pz      :     1.115219  p :     2.888846
      px      :     0.909585
      py      :     0.864043
      dz2     :     0.002829  d :     0.034568
      dxz     :     0.007257
      dyz     :     0.002878
      dx2y2   :     0.008596
      dxy     :     0.013008

  5 H s       :     0.988712  s :     0.988712
      pz      :     0.005865  p :     0.024866
      px      :     0.011692
      py      :     0.007309

  6 H s       :     0.988712  s :     0.988712
      pz      :     0.005865  p :     0.024866
      px      :     0.011627
      py      :     0.007374

  7 H s       :     0.951614  s :     0.951614
      pz      :     0.006205  p :     0.024936
      px      :     0.004464
      py      :     0.014267

  8 H s       :     0.951612  s :     0.951612
      pz      :     0.006205  p :     0.024936
      px      :     0.004421
      py      :     0.014310



                     *******************************
                     * LOEWDIN POPULATION ANALYSIS *
                     *******************************

----------------------
LOEWDIN ATOMIC CHARGES
----------------------
   0 C :   -0.067550
   1 C :   -0.067550
   2 C :   -0.193861
   3 S :    0.429527
   4 C :   -0.193863
   5 H :    0.026969
   6 H :    0.026969
   7 H :    0.019679
   8 H :    0.019679

-------------------------------
LOEWDIN REDUCED ORBITAL CHARGES
-------------------------------
  0 C s       :     2.864266  s :     2.864266
      pz      :     1.009466  p :     3.109027
      px      :     1.056396
      py      :     1.043165
      dz2     :     0.006514  d :     0.094257
      dxz     :     0.009432
      dyz     :     0.011936
      dx2y2   :     0.034211
      dxy     :     0.032165

  1 C s       :     2.864266  s :     2.864266
      pz      :     1.009466  p :     3.109027
      px      :     1.056534
      py      :     1.043027
      dz2     :     0.006514  d :     0.094257
      dxz     :     0.009502
      dyz     :     0.011865
      dx2y2   :     0.034231
      dxy     :     0.032145

  2 C s       :     2.924745  s :     2.924745
      pz      :     1.103700  p :     3.182802
      px      :     1.052294
      py      :     1.026808
      dz2     :     0.006140  d :     0.086314
      dxz     :     0.015500
      dyz     :     0.004606
      dx2y2   :     0.024002
      dxy     :     0.036066

  3 S s       :     5.501922  s :     5.501922
      pz      :     3.577257  p :     9.927670
      px      :     3.362605
      py      :     2.987808
      dz2     :     0.015444  d :     0.140880
      dxz     :     0.011306
      dyz     :     0.031477
      dx2y2   :     0.020284
      dxy     :     0.062369

  4 C s       :     2.924745  s :     2.924745
      pz      :     1.103700  p :     3.182803
      px      :     1.051751
      py      :     1.027352
      dz2     :     0.006140  d :     0.086314
      dxz     :     0.015513
      dyz     :     0.004593
      dx2y2   :     0.024104
      dxy     :     0.035965

  5 H s       :     0.901736  s :     0.901736
      pz      :     0.016362  p :     0.071294
      px      :     0.033194
      py      :     0.021738

  6 H s       :     0.901736  s :     0.901736
      pz      :     0.016362  p :     0.071294
      px      :     0.033011
      py      :     0.021921

  7 H s       :     0.903507  s :     0.903507
      pz      :     0.018979  p :     0.076814
      px      :     0.013943
      py      :     0.043893

  8 H s       :     0.903507  s :     0.903507
      pz      :     0.018979  p :     0.076814
      px      :     0.013844
      py      :     0.043992



                      *****************************
                      * MAYER POPULATION ANALYSIS *
                      *****************************

  NA   - Mulliken gross atomic population
  ZA   - Total nuclear charge
  QA   - Mulliken gross atomic charge
  VA   - Mayer's total valence
  BVA  - Mayer's bonded valence
  FA   - Mayer's free valence

  ATOM       NA         ZA         QA         VA         BVA        FA
  0 C      5.9613     6.0000     0.0387     3.9028     3.9028     0.0000
  1 C      5.9613     6.0000     0.0387     3.9028     3.9028     0.0000
  2 C      6.0888     6.0000    -0.0888     3.7970     3.7970     0.0000
  3 S     15.9195    16.0000     0.0805     2.5492     2.5492     0.0000
  4 C      6.0888     6.0000    -0.0888     3.7970     3.7970    -0.0000
  5 H      1.0136     1.0000    -0.0136     0.9872     0.9872    -0.0000
  6 H      1.0136     1.0000    -0.0136     0.9872     0.9872    -0.0000
  7 H      0.9765     1.0000     0.0235     0.9954     0.9954     0.0000
  8 H      0.9765     1.0000     0.0235     0.9954     0.9954    -0.0000

  Mayer bond orders larger than 0.100000
B(  0-C ,  1-C ) :   1.2739 B(  0-C ,  4-C ) :   1.5482 B(  0-C ,  5-H ) :   0.9953 
B(  1-C ,  2-C ) :   1.5482 B(  1-C ,  6-H ) :   0.9953 B(  2-C ,  3-S ) :   1.1791 
B(  2-C ,  7-H ) :   0.9708 B(  3-S ,  4-C ) :   1.1791 B(  4-C ,  8-H ) :   0.9708 



------------------
HIRSHFELD ANALYSIS
------------------

Total integrated alpha density =     21.999997416
Total integrated beta density  =     21.999997416

  ATOM     CHARGE      SPIN    
   0 C   -0.055682    0.000000
   1 C   -0.055681    0.000000
   2 C   -0.059358    0.000000
   3 S    0.064344    0.000000
   4 C   -0.059360    0.000000
   5 H    0.040377    0.000000
   6 H    0.040377    0.000000
   7 H    0.042494    0.000000
   8 H    0.042494    0.000000

  TOTAL   0.000005    0.000000

-------------------------
CHELPG CHARGES GENERATION
-------------------------
Number of atoms                    ...            9
Number of "pure atoms"             ...            9
Grid spacing                       ...     0.300000
Point Cut-Off                      ...     2.800000
Van-der-Waals Radii                ...        COSMO
Total charge                       ...            0
Dipole moment constraint           ...         TRUE
Equivalent atom charge constraint  ...        FALSE

Grid generated                     ...      0.0 sec
Grid points                        ...         6771
Potential calculated               ...      0.2 sec
Dipole moment calculated           ...      0.0 sec
RespFile stored                    ...           ok
Charges calculated                 ...      0.0 sec

CHELPG Charges            
--------------------------------
  0   C   :      -0.071366
  1   C   :      -0.080679
  2   C   :      -0.312325
  3   S   :       0.110702
  4   C   :      -0.308480
  5   H   :       0.122399
  6   H   :       0.125677
  7   H   :       0.208592
  8   H   :       0.205478
--------------------------------
Total charge:     0.000000
--------------------------------
Molecular dipole moment (a.u.):
 X-component:     0.161480
 Y-component:     0.000518
 Z-component:     0.001126
 Total dipole:    0.161484
--------------------------------

CHELPG charges calculated...

Timings:
Grid generation                 ...        0.000 sec (=   0.000 min)
Potential calculation           ...        0.163 sec (=   0.003 min)
Dipole moment calculation       ...        0.001 sec (=   0.000 min)
Fit to the potential            ...        0.001 sec (=   0.000 min)
------------------------------------------------------------------------------

-------
TIMINGS
-------

Total SCF time: 0 days 0 hours 0 min 1 sec 

Total time                  ....       1.694 sec
Sum of individual times     ....       1.551 sec  ( 91.6%)

SCF preparation             ....       0.022 sec  (  1.3%)
Fock matrix formation       ....       1.291 sec  ( 76.2%)
  Startup                   ....       0.001 sec  (  0.1% of F)
  Split-RI-J                ....       0.334 sec  ( 25.9% of F)
  XC integration            ....       1.084 sec  ( 84.0% of F)
    Basis function eval.    ....       0.382 sec  ( 35.2% of XC)
    Density eval.           ....       0.179 sec  ( 16.5% of XC)
    XC-Functional eval.     ....       0.113 sec  ( 10.4% of XC)
    XC-Potential eval.      ....       0.327 sec  ( 30.1% of XC)
Diagonalization             ....       0.000 sec  (  0.0%)
Density matrix formation    ....       0.003 sec  (  0.2%)
Total Energy calculation    ....       0.001 sec  (  0.1%)
Population analysis         ....       0.218 sec  ( 12.9%)
Orbital Transformation      ....       0.001 sec  (  0.1%)
Orbital Orthonormalization  ....       0.000 sec  (  0.0%)
DIIS solution               ....       0.011 sec  (  0.6%)
SOSCF solution              ....       0.004 sec  (  0.2%)
Finished LeanSCF after   1.7 sec

Maximum memory used throughout the entire LEANSCF-calculation: 9.9 MB

------------------------------------------------------------------------------
                         ORCA PROPERTY INTEGRAL CALCULATIONS
------------------------------------------------------------------------------

GBWName                                   ... thiophene.gbw
Number of atoms                           ...      9
Number of basis functions                 ...     94
Max core memory                           ...   3000 MB

Dipole integrals                          ... YES
Quadrupole integrals                      ... YES
Linear momentum integrals                 ...  NO
Angular momentum integrals                ...  NO
Higher moments length integrals           ...  NO
Higher moments velocity integrals         ...  NO
Kinetic energy integrals                  ...  NO
GIAO right hand sides                     ...  NO
GIAO dipole derivative integrals          ...  NO
SOC integrals                             ...  NO
EPR diamagnetic integrals (GIAO)          ...  NO
EPR gauge integrals                       ...  NO
Field gradient integrals                  ...  NO (   0 nuclei)
Spin-dipole/Fermi contact integrals       ...  NO (   0 nuclei)
Contact density integrals                 ...  NO (   0 nuclei)
Nucleus-orbit integrals                   ...  NO (   0 nuclei)
Geometric perturbations                   ...  NO (   9 nuclei)

Choice of electric origin   ... Center of mass
Position of electric origin ... (  0.1195,  0.0053, -0.0097) 
Choice of magnetic origin   ... GIAO
Position of magnetic origin ... (  0.0000,  0.0000,  0.0000) 

Calculating integrals                     ... Electric Dipole (Length)     done (  0.0 sec)
Calculating integrals                     ... Electric Quadrupole (Length) done (  0.0 sec)

Property integrals calculated in   0.0 sec

Maximum memory used throughout the entire PROPINT-calculation: 7.9 MB


-------------------------------------------------------------------------------
                          DFT DISPERSION CORRECTION                            
                                                                               
                              DFTD3 V3.1  Rev 1                                
                          USING Becke-Johnson damping                          
-------------------------------------------------------------------------------
The revPBE functional is recognized
Active option DFTDOPT                   ...         4   

molecular C6(AA) [au] = 1447.477961 


            DFT-D V3
 parameters
 s6 scaling factor         :     1.0000 
 a1 scaling factor         :     0.5238 
 s8 scaling factor         :     2.3550 
 a2 scaling factor         :     3.5016 
 ad hoc parameters k1-k3   :    16.0000     1.3333    -4.0000 

 Edisp/kcal,au: -13.826192844094  -0.022033438443 
 E6   /kcal   :  -5.221828878 
 E8   /kcal   :  -8.604363966 
 % E8         :  62.232344527 

-------------------------   ----------------
Dispersion correction           -0.022033438
-------------------------   ----------------


-------------------------   --------------------
FINAL SINGLE POINT ENERGY      -552.679814405780
-------------------------   --------------------


---------------
PLOT GENERATION
---------------
choosing x-range =    -9.050119 ..    11.292106
choosing y-range =   -11.257913 ..    11.265552
choosing z-range =    -7.019645 ..     7.010904

GBW-File       ... thiophene.gbw
PlotType       ... DENSITY-PLOT
ElDens File    ... thiophene.scfp
Output file    ... eldens.cube
Format         ... Gaussian-Cube
Resolution     ... 40 40 40
Boundaries     ...    -9.050119    11.292106 (x direction)
                     -11.257913    11.265552 (y direction)
                      -7.019645     7.010904 (z direction)
choosing x-range =    -9.050119 ..    11.292106
choosing y-range =   -11.257913 ..    11.265552
choosing z-range =    -7.019645 ..     7.010904

GBW-File       ... thiophene.gbw
PlotType       ... MO-PLOT
MO/Operator    ... 21 0
Output file    ... homo.cube
Format         ... Gaussian-Cube
Resolution     ... 40 40 40
Boundaries     ...    -9.050119    11.292106 (x direction)
                     -11.257913    11.265552 (y direction)
                      -7.019645     7.010904 (z direction)
choosing x-range =    -9.050119 ..    11.292106
choosing y-range =   -11.257913 ..    11.265552
choosing z-range =    -7.019645 ..     7.010904

GBW-File       ... thiophene.gbw
PlotType       ... MO-PLOT
MO/Operator    ... 22 0
Output file    ... lumo.cube
Format         ... Gaussian-Cube
Resolution     ... 40 40 40
Boundaries     ...    -9.050119    11.292106 (x direction)
                     -11.257913    11.265552 (y direction)
                      -7.019645     7.010904 (z direction)
------------------------------------------------------------------------------
                            ORCA SCF RESPONSE CALCULATION
------------------------------------------------------------------------------

GBWName                                 ... thiophene.gbw
Number of atoms                         ...      9
Number of basis functions               ...     94
Max core memory                         ...   3000 MB

Electric field perturbation             ... YES
Quadrupolar field perturbation          ...  NO
Magnetic field perturbation (no GIAO)   ...  NO
Magnetic field perturbation (with GIAO) ...  NO
Linear momentum (velocity) perturbation ...  NO
Spin-orbit coupling perturbation        ...  NO
Choice of electric origin               ... Center of mass
Position of electric origin             ...     0.119496     0.005271    -0.009681
Choice of magnetic origin               ... GIAO
Position of magnetic origin             ...     0.000000     0.000000     0.000000
Nuclear geometric perturbations         ...  NO (  27 perturbations)
Nucleus-orbit perturbations             ...  NO (   0 perturbations)
Spin-dipole/Fermi contact perturbations ...  NO (   0 perturbations)

Total number of real perturbations      ...      3
Total number of imaginary perturbations ...      0
Total number of triplet perturbations   ...      0
Total number of SOC perturbations       ...      0


                                **********************
                                * REAL PERTURBATIONS *
                                **********************



-------------------
SHARK CP-SCF DRIVER
-------------------

Dimension of the orbital basis          ...     94
Dimension of the CPSCF-problem          ...   1584
Number of operators                     ...      1
Max. number of iterations               ...    128
Convergence Tolerance                   ... 1.0e-03
Number of perturbations                 ...      3
Perturbation type                       ... REAL

----------------------------
POPLE LINEAR EQUATION SOLVER
----------------------------

  ITERATION   0:   ||err||_max =   3.3352e+01 (   0.1 sec   0/  3 done)
  ITERATION   1:   ||err||_max =   9.5442e-01 (   0.1 sec   0/  3 done)
  ITERATION   2:   ||err||_max =   3.1933e-01 (   0.1 sec   0/  3 done)
  ITERATION   3:   ||err||_max =   7.3932e-02 (   0.1 sec   0/  3 done)
  ITERATION   4:   ||err||_max =   1.6590e-02 (   0.1 sec   0/  3 done)
  ITERATION   5:   ||err||_max =   4.2220e-03 (   0.1 sec   1/  3 done)
  ITERATION   6:   ||err||_max =   1.7506e-03 (   0.1 sec   2/  3 done)
  ITERATION   7:   ||err||_max =   2.4475e-04 (   0.0 sec   3/  3 done)

CP-SCF equations solved in   0.6 sec
Response densities calculated in   0.0 sec

Maximum memory used throughout the entire SCFRESP-calculation: 8.0 MB

------------------------------------------------------------------------------
                              ORCA PROPERTY CALCULATIONS
------------------------------------------------------------------------------

GBWName                                 ... thiophene.gbw
Number of atoms                         ...      9
Number of basis functions               ...     94
Max core memory                         ...   3000 MB

Electric properties:
Dipole moment                           ... YES
Quadrupole moment                       ... YES
Static polarizability (Dipole/Dipole)   ... YES
Static polarizability (Dipole/Quad.)    ...  NO
Static polarizability (Quad./Quad.)     ...  NO
Static polarizability (Velocity)        ...  NO
Static hyperpolarizability              ...  NO

Atomic electric properties:
Dipole moment                           ...  NO
Quadrupole moment                       ...  NO
Static polarizability                   ...  NO

Choice of electric origin               ... Center of mass
Position of electric origin             ...     0.119496     0.005271    -0.009681

General magnetic properties:
Magnetizability                         ...  NO

EPR properties:
g-Tensor (aka g-matrix)                 ...  NO
Zero-Field splitting spin-orbit         ...  NO
Zero-field splitting spin-spin          ...  NO
Hyperfine couplings                     ...  NO (   0 nuclei)
Quadrupole couplings                    ...  NO (   0 nuclei)
Contact density                         ...  NO (   0 nuclei)

NMR properties:
Chemical shifts                         ...  NO (   0 nuclei)
Spin-rotation constants                 ...  NO (   0 nuclei)
Spin-spin couplings                     ...  NO (   0 nuclei,    0 pairs)

Choice of magnetic origin               ... GIAO
Position of magnetic origin             ...     0.000000     0.000000     0.000000

Properties with geometric perturbations:
SCF Hessian                             ...  NO
IR spectrum                             ...  NO
VCD spectrum                            ...  NO
X-ray spectroscopy properties:
SCF XES/XAS/RIXS spectra                ...  NO

SCF SOC stabilization energy            ...  NO
Diagonal Born-Oppenheimer correction    ...  NO

-------------
DIPOLE MOMENT
-------------

Method             : SCF
Type of density    : Electron Density
Multiplicity       :   1
Irrep              :   0
Energy             :  -552.6577809673366346 Eh
Basis              : AO
                                X                 Y                 Z
Electronic contribution:     -3.556388856      -0.011374453      -0.016834258
Nuclear contribution   :      3.717868546       0.011892330       0.017960282
                        -----------------------------------------
Total Dipole Moment    :      0.161479690       0.000517877       0.001126024
                        -----------------------------------------
Magnitude (a.u.)       :      0.161484447
Magnitude (Debye)      :      0.410460844



--------------------
Rotational spectrum 
--------------------
 
Rotational constants in cm-1:             0.272834             0.180314             0.108565 
Rotational constants in MHz :          8179.372533          5405.670458          3254.681939 

Dipole components along the rotational axes: 
x,y,z [a.u.] :     0.161484    -0.000001     0.000368 
x,y,z [Debye]:     0.410460    -0.000003     0.000934 

 

Dipole moment calculation done in   0.0 sec 

-----------------
QUADRUPOLE MOMENT
-----------------

Method             : SCF
Type of density    : Electron Density
Multiplicity       :   1
Irrep              :   0
Energy             :  -552.6577809673366346 Eh
Basis              : AO

                XX              YY              ZZ              XY              XZ              YZ
  NUC      184.128026610   134.296354450     0.004104611     0.159384711     0.868663220     0.009767521
  EL      -209.811444342  -158.041163409   -29.282700334    -0.165581131    -0.850991865    -0.009374609
  TOT      -25.683417731   -23.744808959   -29.278595723    -0.006196420     0.017671355     0.000392911 (a.u.)
           -34.545075222   -31.937580122   -39.380712575    -0.008334396     0.023768577     0.000528479 (Buckingham)

diagonalized tensor:
           -29.278682613   -25.683350667   -23.744789133 (a.u.)
           -39.380829445   -34.544985018   -31.937553455 (Buckingham)
           -12.279120417     2.228412865    10.050707553 (traceless form in Buckingham)

            -0.004915247     0.999982814     0.003195720
            -0.000076504     0.003195382    -0.999994892
             0.999987917     0.004915467    -0.000060797
        
Isotropic quadrupole :   -26.235607471

Quadrupole moment calculation done in   0.0 sec (  0.0 sec for integrals)


---------------------------------------------------
STATIC POLARIZABILITY TENSOR (Dipole/Dipole)
---------------------------------------------------

Method             : SCF
Type of density    : Electron Density
Type of derivative : Electric Field (Direction=X)
Multiplicity       :   1
Irrep              :   0
Basis              : AO

The raw cartesian tensor (atomic units):
      64.612192763         0.011629526         0.180802490  
       0.011629526        60.829495950         0.002131082  
       0.180802490         0.002131082        26.702454890  
diagonalized tensor: 
      26.701592484        60.829460269        64.613090850  

Orientation: 
      -0.004769107        -0.003076563        -0.999983895  
      -0.000060818         0.999995266        -0.003076308  
       0.999988626         0.000046146        -0.004769272  

Isotropic polarizability :  50.71471


Polarizability tensor calculation done in   0.0 sec 

Maximum memory used throughout the entire PROP-calculation: 5.7 MB

--------------------------------
SUGGESTED CITATIONS FOR THIS RUN
--------------------------------

Below you find a list of papers that are relevant to this ORCA run
We neither can nor want to force you to cite these papers, but we appreciate if you do
You receive ORCA, which is the product of decades of hard work by many enthusiastic individuals, for free
The only thing we kindly ask in return is that you cite our papers,
We deeply appreciate it, if you show your appreciation for ORCA by not just citing the generic ORCA reference.

Please note that relegating all ORCA citations to the supporting information does *not* help us.
SI sections are not indexed - citations you put there will not count into any citation statistics
But we need these citations in order to attract the funding resources that allow us to do what we are doing

Therefore, if you are a happy ORCA user, please consider citing a few of the papers listed below in the main body of your paper

In addition to the list printed below, the program has created the file thiophene.bibtex that contains the list in bibtex format
You can import this file easily into all common literature databanks and citation aid programs


List of essential papers. We consider these as the minimum necessary citations

  1. Neese, F.
     Software update: the ORCA program system, version 6.0
     WIRES Comput. Molec. Sci. 2025 15(1), e70019
     doi.org/10.1002/wcms.7019

List of papers to cite with high priority. The work reported in these papers was absolutely
necessary for this run to complete.
Our perspective: the developers of density functionals and basis sets usually get cited in chemistry papers
Good! But without the algorithms to do something with them, the functionals or basis sets would not do anything.
Hence, in our opinion, the algorithm design and method developments papers are equally worthy of getting cited

  1. Neese, F.
     An improvement of the resolution of the identity approximation for the formation of the Coulomb matrix
     J. Comp. Chem. 2003 24(14), 1740-1747
     doi.org/10.1002/jcc.10318
  2. Grimme, S.; Antony, J.; Ehrlich, S.; Krieg, H.
     A consistent and accurate ab initio parametrization of density functional dispersion correction (DFT-D) for the 94 elements H-Pu
     J. Chem. Phys. 2010 132 , 154104
     doi.org/10.1063/1.3382344
  3. Grimme, S.; Ehrlich, S.; Goerigk, L.
     Effect of the damping function in dispersion corrected density functional theory
     J. Comput. Chem. 2011 32(7), 1456-1465
     doi.org/10.1002/jcc.21759
  4. Neese, F.
     The SHARK Integral Generation and Digestion System
     J. Comp. Chem. 2022 44(3), 381
     doi.org/10.1002/jcc.26942

List of suggested additional citations. These are papers that are important in the 'surrounding' of 
of this run, or papers that preceded the highly important papers. If you like your results we are grateful for a citation.

  1. Neese, F.
     The ORCA program system
     WIRES Comput. Molec. Sci. 2012 2(1), 73-78
     doi.org/10.1002/wcms.81
  2. Neese, F.
     Software update: the ORCA program system, version 4.0
     WIRES Comput. Molec. Sci. 2018 8(1), 1-6
     doi.org/10.1002/wcms.1327
  3. Neese, F.; Wennmohs, F.; Becker, U.; Riplinger, C.
     The ORCA quantum chemistry program package
     J. Chem. Phys. 2020 152(22), 224108
     doi.org/10.1063/5.0004608
  4. Neese, F.
     Software update: The ORCA program system—Version 5.0
     WIRES Comput. Molec. Sci. 2022 12(1), e1606
     doi.org/10.1002/wcms.1606

List of optional additional citations

  1. Neese, F.
     Approximate second-order SCF convergence for spin unrestricted wavefunctions
     Chem. Phys. Lett. 2000 325(1-3), 93-98
     doi.org/10.1016/s0009-2614(00)00662-x

Timings for individual modules:

Sum of individual times          ...        3.211 sec (=   0.054 min)
Startup calculation              ...        0.238 sec (=   0.004 min)   7.4 %
SCF iterations                   ...        1.840 sec (=   0.031 min)  57.3 %
Property integrals               ...        0.039 sec (=   0.001 min)   1.2 %
SCF Response                     ...        0.703 sec (=   0.012 min)  21.9 %
Property calculations            ...        0.040 sec (=   0.001 min)   1.2 %
Orbital/Density plot generation  ...        0.351 sec (=   0.006 min)  10.9 %
                             ****ORCA TERMINATED NORMALLY****
TOTAL RUN TIME: 0 days 0 hours 0 minutes 3 seconds 312 msec
